/*--------------------------------*- C++ -*----------------------------------*| =========                 |                                                 |
| \      /  F ield         | OpenFOAM: The Open Source CFD Toolbox           |
|  \    /   O peration     | Version:  2.2.2                                 |
|   \  /    A nd           | Web:      www.OpenFOAM.org                      |
|    \/     M anipulation  |                                                 |
\*---------------------------------------------------------------------------*/
FoamFile
{
	version 2.0;
	class volScalarField;
	object rho;
	format ascii;
}
// * * * * * * * * * * * * * * * * * * * * * * * * * * * * * * * * * * * * * //
dimensions      [0 1 -1 0 0 0 0];
internalField   nonuniform List<scalar>
100
(
0.997517537954
nan
nan
nan
nan
nan
nan
nan
nan
nan
nan
nan
nan
nan
nan
nan
nan
nan
nan
nan
nan
nan
nan
nan
nan
nan
nan
nan
nan
nan
nan
nan
nan
nan
nan
nan
nan
nan
nan
nan
nan
nan
nan
nan
nan
nan
nan
nan
nan
nan
nan
nan
nan
nan
nan
nan
nan
nan
nan
nan
nan
nan
nan
nan
nan
nan
nan
nan
nan
nan
nan
nan
nan
nan
nan
6.23920151716e+23
-4.76073049607e+23
6.74266814641e+23
nan
nan
-6.13917190413e+24
1.65887697893e+24
3.26998904557e+24
-3.30153629792e+24
4.56760431896e+24
-6.19493404554e+24
1.65887697893e+24
3.26998904557e+24
-3.30153629792e+24
4.56760431896e+24
-6.84182185217e+24
2.70341828615e+24
2.58052688885e+24
nan
nan
nan
nan
nan
nan
nan
)
;
boundaryField
{
	walls
	{
		type zeroGradient;
	}
	sides
	{
		type zeroGradient;
	}
}
