/*--------------------------------*- C++ -*----------------------------------*| =========                 |                                                 |
| \      /  F ield         | OpenFOAM: The Open Source CFD Toolbox           |
|  \    /   O peration     | Version:  2.2.2                                 |
|   \  /    A nd           | Web:      www.OpenFOAM.org                      |
|    \/     M anipulation  |                                                 |
\*---------------------------------------------------------------------------*/
FoamFile
{
	version 2.0;
	class volScalarField;
	object rhoE;
	format ascii;
}
// * * * * * * * * * * * * * * * * * * * * * * * * * * * * * * * * * * * * * //
dimensions      [0 1 -1 0 0 0 0];
internalField   nonuniform List<scalar>
100
(
nan
nan
nan
nan
nan
nan
nan
nan
nan
nan
nan
nan
nan
nan
nan
nan
nan
nan
nan
nan
nan
nan
nan
nan
nan
nan
nan
nan
nan
nan
nan
nan
nan
nan
nan
nan
nan
nan
nan
nan
nan
nan
nan
nan
nan
nan
nan
nan
nan
nan
nan
nan
nan
nan
nan
nan
nan
nan
nan
nan
nan
nan
nan
nan
nan
nan
nan
nan
nan
nan
nan
nan
nan
nan
nan
3.58586733057e+29
-2.294094294e+29
3.72947340177e+29
nan
nan
-5.94797046841e+30
1.98337057955e+30
1.61576465445e+30
-1.48447639235e+30
4.08521858633e+30
-6.19987742798e+30
1.98337057955e+30
1.61576465445e+30
-1.48447639235e+30
4.08521858633e+30
-7.40911777407e+30
3.37838910444e+30
nan
nan
nan
nan
nan
nan
nan
nan
)
;
boundaryField
{
	walls
	{
		type zeroGradient;
	}
	sides
	{
		type zeroGradient;
	}
}
