/*--------------------------------*- C++ -*----------------------------------*| =========                 |                                                 |
| \      /  F ield         | OpenFOAM: The Open Source CFD Toolbox           |
|  \    /   O peration     | Version:  2.2.2                                 |
|   \  /    A nd           | Web:      www.OpenFOAM.org                      |
|    \/     M anipulation  |                                                 |
\*---------------------------------------------------------------------------*/
FoamFile
{
	version 2.0;
	class volScalarField;
	object rho;
	format ascii;
}
// * * * * * * * * * * * * * * * * * * * * * * * * * * * * * * * * * * * * * //
dimensions      [0 1 -1 0 0 0 0];
internalField   nonuniform List<scalar>
100
(
0.997517537954
0.936247323162
1.24259822686
0.568626465148
1.48767873533
0.568626514624
1.18132791312
1.18132806155
0.568626465148
1.48767873533
0.548203130066
1.30386826121
0.895400629717
0.936247375549
1.1200578453
0.915824004088
1.01794092106
1.01794092688
0.915823992447
1.1200578453
0.915824004088
1.01794092106
1.01794092688
0.915823992447
1.1200578453
0.915824004088
1.01794092106
1.01794092688
0.915823992447
1.1200578453
0.915824004088
1.01794092688
1.01794091524
0.915824006999
1.14048121385
0.854553869332
1.05878766398
1.05878770764
0.85455385478
1.16090459405
0.854553870787
1.07921106163
0.977094153396
0.997517535044
0.997517543775
0.997517535044
0.997517537954
0.99751754232
nan
nan
nan
nan
nan
nan
nan
0.124689513315
0.124689513133
0.124689513679
0.124689512405
0.124689514406
0.124689513315
0.124689512223
0.124689514406
0.122647170021
0.132858880671
0.1124354661
0.132858877033
0.122647172749
0.122647170021
0.132858880671
0.1124354661
0.132858877761
0.122647171658
0.122647170021
0.13081653956
0.118562489435
0.126731854244
0.126731854972
0.116520147232
0.136943561439
0.116520148687
0.126731854244
0.126731854972
0.116520147232
0.136943561439
0.116520148687
0.126731854244
0.126731854972
0.116520147232
0.136943561439
0.118562490344
0.120604830546
0.130816537013
0.120604826726
0.132858883582
0.112435465918
0.130816532102
0.130816541924
0.110393121896
0.141028245481
)
;
boundaryField
{
	walls
	{
		type zeroGradient;
	}
	sides
	{
		type zeroGradient;
	}
}
