/*--------------------------------*- C++ -*----------------------------------*| =========                 |                                                 |
| \      /  F ield         | OpenFOAM: The Open Source CFD Toolbox           |
|  \    /   O peration     | Version:  2.2.2                                 |
|   \  /    A nd           | Web:      www.OpenFOAM.org                      |
|    \/     M anipulation  |                                                 |
\*---------------------------------------------------------------------------*/
FoamFile
{
	version 2.0;
	class volScalarField;
	object rhoE;
	format ascii;
}
// * * * * * * * * * * * * * * * * * * * * * * * * * * * * * * * * * * * * * //
dimensions      [0 1 -1 0 0 0 0];
internalField   nonuniform List<scalar>
100
(
250000.0
228502.057246
335991.712143
99514.5518938
421983.35884
99514.568639
314493.733879
314493.786749
99514.5518938
421983.35884
92348.5951954
357489.590676
214170.136048
228502.075514
292995.842957
221336.106156
257165.97333
257165.975385
221336.102172
292995.842957
221336.106156
257165.97333
257165.975385
221336.102172
292995.842957
221336.106156
257165.97333
257165.975385
221336.102172
292995.842957
221336.106156
257165.975373
257165.971284
221336.107256
300161.81119
199838.191325
271497.911796
271497.927189
199838.186278
307327.783411
199838.191848
278663.890216
242834.026163
249999.998979
250000.002042
249999.998979
250000.0
nan
nan
nan
nan
nan
nan
nan
nan
25000.0
24999.9999489
25000.0001021
24999.9997447
25000.0003064
25000.0
24999.9996936
25000.0003064
24426.7199133
27293.1187201
21560.3229946
27293.1176936
24426.7206785
24426.7199133
27293.1187201
21560.3229946
27293.1178982
24426.7203718
24426.7199129
26719.8392447
23280.161418
25573.2794243
25573.2796292
22706.8816443
28439.6772547
22706.8820474
25573.2794243
25573.2796292
22706.8816443
28439.6772547
22706.8820474
25573.2794243
25573.2796292
22706.8816443
28439.6772547
23280.161676
23853.4408961
26719.8385279
23853.4398259
27293.1195407
21560.3229415
26719.8371446
26719.8399139
20987.0426616
29586.2367087
)
;
boundaryField
{
	walls
	{
		type zeroGradient;
	}
	sides
	{
		type zeroGradient;
	}
}
