/*--------------------------------*- C++ -*----------------------------------*| =========                 |                                                 |
| \      /  F ield         | OpenFOAM: The Open Source CFD Toolbox           |
|  \    /   O peration     | Version:  2.2.2                                 |
|   \  /    A nd           | Web:      www.OpenFOAM.org                      |
|    \/     M anipulation  |                                                 |
\*---------------------------------------------------------------------------*/
FoamFile
{
	version 2.0;
	class volVectorField;
	object rhoU;
	format ascii;
}
// * * * * * * * * * * * * * * * * * * * * * * * * * * * * * * * * * * * * * //
dimensions      [0 1 -1 0 0 0 0];
internalField   nonuniform List<vector>
100
(
(0.000000 0.000000 0.000000)
(0.046597 -0.000000 0.000000)
(-0.068366 -0.000000 0.000000)
(0.105610 -0.000000 0.000000)
(-0.081694 -0.000000 0.000000)
(0.037354 0.000000 -0.000000)
(0.009514 -0.000000 0.000000)
(-0.070784 -0.000000 0.000000)
(0.105610 -0.000000 0.000000)
(-0.081694 -0.000000 0.000000)
(0.054941 0.000000 -0.000000)
(-0.039753 0.000000 -0.000000)
(-0.021420 -0.000000 0.000000)
(0.030259 0.000000 -0.000000)
(-0.024508 0.000000 -0.000000)
(0.004419 0.000000 -0.000000)
(-0.006085 0.000000 -0.000000)
(-0.002084 0.000000 0.000000)
(0.028258 0.000000 -0.000000)
(-0.024508 0.000000 -0.000000)
(0.004419 0.000000 -0.000000)
(-0.006085 0.000000 -0.000000)
(-0.002084 0.000000 0.000000)
(0.028258 0.000000 -0.000000)
(-0.024508 0.000000 -0.000000)
(0.004419 0.000000 -0.000000)
(-0.006085 0.000000 -0.000000)
(-0.002084 0.000000 0.000000)
(0.028258 0.000000 -0.000000)
(-0.024508 0.000000 -0.000000)
(0.004419 0.000000 -0.000000)
(-0.010170 0.000000 -0.000000)
(0.010170 -0.000000 0.000000)
(0.013962 0.000000 -0.000000)
(-0.016631 0.000000 -0.000000)
(0.008462 -0.000000 0.000000)
(0.006503 0.000000 -0.000000)
(-0.024884 0.000000 -0.000000)
(0.034427 0.000000 -0.000000)
(-0.024508 0.000000 -0.000000)
(0.010504 -0.000000 0.000000)
(-0.005792 -0.000000 0.000000)
(-0.010170 0.000000 -0.000000)
(0.006127 -0.000000 0.000000)
(-0.006127 -0.000000 0.000000)
(0.002042 -0.000000 0.000000)
(-0.002042 -0.000000 0.000000)
(nan nan nan)
(nan nan nan)
(nan nan nan)
(nan nan nan)
(nan nan nan)
(nan nan nan)
(nan nan nan)
(nan nan nan)
(0.000000 0.000000 0.000000)
(0.000000 -0.000000 0.000000)
(-0.000000 -0.000000 0.000000)
(0.000204 -0.000000 0.000000)
(-0.000613 -0.000000 0.000000)
(0.000613 0.000000 -0.000000)
(0.000000 0.000000 -0.000000)
(-0.000613 0.000000 -0.000000)
(0.002039 0.000000 -0.000000)
(-0.002069 0.000000 -0.000000)
(0.001838 -0.000000 0.000000)
(-0.000382 0.000000 -0.000000)
(-0.001426 -0.000000 0.000000)
(0.002039 0.000000 -0.000000)
(-0.002069 0.000000 -0.000000)
(0.001838 -0.000000 0.000000)
(-0.000586 -0.000000 0.000000)
(-0.000814 0.000000 0.000000)
(0.001426 0.000000 -0.000000)
(-0.001848 0.000000 -0.000000)
(0.001031 0.000000 -0.000000)
(-0.000609 0.000000 -0.000000)
(-0.000003 0.000000 0.000000)
(0.002220 0.000000 -0.000000)
(-0.001838 0.000000 -0.000000)
(0.000231 0.000000 -0.000000)
(-0.000609 0.000000 -0.000000)
(-0.000003 0.000000 0.000000)
(0.002220 0.000000 -0.000000)
(-0.001838 0.000000 -0.000000)
(0.000231 0.000000 -0.000000)
(-0.000609 0.000000 -0.000000)
(-0.000003 0.000000 0.000000)
(0.002220 0.000000 -0.000000)
(-0.001838 0.000000 -0.000000)
(-0.000583 -0.000000 0.000000)
(0.001008 0.000000 -0.000000)
(0.000010 0.000000 0.000000)
(0.001021 -0.000000 0.000000)
(-0.003090 -0.000000 0.000000)
(0.003064 0.000000 -0.000000)
(0.000030 -0.000000 0.000000)
(-0.003094 -0.000000 0.000000)
(0.004878 -0.000000 0.000000)
(-0.004085 -0.000000 0.000000)
)
;
boundaryField
{
	walls
	{
		type zeroGradient;
	}
	sides
	{
		type zeroGradient;
	}
}
