/*--------------------------------*- C++ -*----------------------------------*| =========                 |                                                 |
| \      /  F ield         | OpenFOAM: The Open Source CFD Toolbox           |
|  \    /   O peration     | Version:  2.2.2                                 |
|   \  /    A nd           | Web:      www.OpenFOAM.org                      |
|    \/     M anipulation  |                                                 |
\*---------------------------------------------------------------------------*/
FoamFile
{
	version 2.0;
	class volVectorField;
	object rhoU;
	format ascii;
}
// * * * * * * * * * * * * * * * * * * * * * * * * * * * * * * * * * * * * * //
dimensions      [0 1 -1 0 0 0 0];
internalField   nonuniform List<vector>
100
(
(0.000000 0.000000 0.000000)
(0.000000 -0.000000 0.000000)
(0.000000 0.000000 0.000000)
(0.000000 -0.000000 0.000000)
(0.000000 0.000000 0.000000)
(0.000000 0.000000 0.000000)
(0.000000 -0.000000 0.000000)
(0.000000 0.000000 0.000000)
(0.000000 -0.000000 0.000000)
(0.000000 0.000000 0.000000)
(0.000000 0.000000 -0.000000)
(0.000000 0.000000 -0.000000)
(0.000000 0.000000 0.000000)
(0.000000 0.000000 -0.000000)
(0.000000 0.000000 -0.000000)
(0.000000 0.000000 -0.000000)
(0.000000 0.000000 -0.000000)
(0.000000 0.000000 0.000000)
(0.000000 0.000000 -0.000000)
(0.000000 0.000000 -0.000000)
(0.000000 0.000000 -0.000000)
(0.000000 0.000000 -0.000000)
(0.000000 0.000000 0.000000)
(nan nan nan)
(nan nan nan)
(nan nan nan)
(nan nan nan)
(nan nan nan)
(nan nan nan)
(nan nan nan)
(nan nan nan)
(nan nan nan)
(nan nan nan)
(nan nan nan)
(nan nan nan)
(nan nan nan)
(nan nan nan)
(nan nan nan)
(nan nan nan)
(nan nan nan)
(nan nan nan)
(nan nan nan)
(nan nan nan)
(nan nan nan)
(nan nan nan)
(nan nan nan)
(nan nan nan)
(nan nan nan)
(nan nan nan)
(nan nan nan)
(nan nan nan)
(nan nan nan)
(nan nan nan)
(nan nan nan)
(nan nan nan)
(nan nan nan)
(nan nan nan)
(nan nan nan)
(nan nan nan)
(nan nan nan)
(nan nan nan)
(nan nan nan)
(nan nan nan)
(nan nan nan)
(nan nan nan)
(nan nan nan)
(nan nan nan)
(nan nan nan)
(nan nan nan)
(nan nan nan)
(nan nan nan)
(nan nan nan)
(nan nan nan)
(nan nan nan)
(nan nan nan)
(nan nan nan)
(nan nan nan)
(nan nan nan)
(nan nan nan)
(0.000000 0.000000 -0.000000)
(0.000000 0.000000 -0.000000)
(0.000000 0.000000 -0.000000)
(0.000000 0.000000 0.000000)
(0.000000 0.000000 -0.000000)
(0.000000 0.000000 -0.000000)
(0.000000 0.000000 -0.000000)
(0.000000 0.000000 -0.000000)
(0.000000 0.000000 0.000000)
(0.000000 0.000000 -0.000000)
(0.000000 0.000000 -0.000000)
(0.000000 0.000000 0.000000)
(0.000000 0.000000 0.000000)
(0.000000 0.000000 0.000000)
(0.000000 -0.000000 0.000000)
(0.000000 0.000000 0.000000)
(0.000000 0.000000 0.000000)
(0.000000 -0.000000 0.000000)
(0.000000 0.000000 0.000000)
(0.000000 -0.000000 0.000000)
(0.000000 0.000000 0.000000)
)
;
boundaryField
{
	walls
	{
		type zeroGradient;
	}
	sides
	{
		type zeroGradient;
	}
}
