
    /*--------------------------------*- C++ -*----------------------------------*| =========                 |                                                 |
| \      /  F ield         | OpenFOAM: The Open Source CFD Toolbox           |
|  \    /   O peration     | Version:  2.2.2                                 |
|   \  /    A nd           | Web:      www.OpenFOAM.org                      |
|    \/     M anipulation  |                                                 |
\*---------------------------------------------------------------------------*/
FoamFile
{
    version     2.0;
    format      ascii;
    class       volScalarField;
    location    "1";
    object      U;
}
// * * * * * * * * * * * * * * * * * * * * * * * * * * * * * * * * * * * * * //

dimensions      [0 1 -1 0 0 0 0];

internalField   nonuniform List<scalar> 
100
(
1.722530186039245752e-03
3.343031912592404637e-03
5.812089870375669425e-03
8.708841628440166377e-03
1.080558045970022273e-02
1.080558045970022273e-02
8.708841628440166377e-03
5.812089870375669425e-03
3.343031912592404637e-03
1.722530186039244234e-03
3.343031912592404637e-03
7.085197940190952545e-03
1.355279291752845353e-02
2.219503745995769078e-02
2.914319311124246442e-02
2.914319311124246442e-02
2.219503745995769078e-02
1.355279291752845353e-02
7.085197940190952545e-03
3.343031912592404637e-03
5.812089870375669425e-03
1.355279291752845353e-02
2.914319311124245054e-02
5.417823890244199275e-02
7.811995439178134881e-02
7.811995439178137657e-02
5.417823890244199275e-02
2.914319311124245054e-02
1.355279291752845353e-02
5.812089870375664220e-03
8.708841628440166377e-03
2.219503745995769078e-02
5.417823890244199275e-02
1.198732501037621107e-01
2.057406610838144745e-01
2.057406610838145578e-01
1.198732501037621107e-01
5.417823890244199275e-02
2.219503745995769078e-02
8.708841628440166377e-03
1.080558045970022273e-02
2.914319311124246442e-02
7.811995439178134881e-02
2.057406610838145578e-01
4.930686913952397332e-01
4.930686913952400108e-01
2.057406610838146133e-01
7.811995439178134881e-02
2.914319311124246442e-02
1.080558045970021232e-02
1.080558045970022273e-02
2.914319311124246442e-02
7.811995439178137657e-02
2.057406610838145578e-01
4.930686913952398998e-01
4.930686913952402328e-01
2.057406610838146410e-01
7.811995439178137657e-02
2.914319311124246442e-02
1.080558045970021232e-02
8.708841628440166377e-03
2.219503745995769078e-02
5.417823890244199275e-02
1.198732501037621107e-01
2.057406610838145578e-01
2.057406610838146410e-01
1.198732501037621662e-01
5.417823890244199275e-02
2.219503745995769078e-02
8.708841628440166377e-03
5.812089870375669425e-03
1.355279291752845353e-02
2.914319311124245054e-02
5.417823890244199275e-02
7.811995439178134881e-02
7.811995439178137657e-02
5.417823890244199275e-02
2.914319311124245054e-02
1.355279291752845353e-02
5.812089870375664220e-03
3.343031912592404637e-03
7.085197940190952545e-03
1.355279291752845353e-02
2.219503745995769078e-02
2.914319311124246442e-02
2.914319311124246442e-02
2.219503745995769078e-02
1.355279291752845353e-02
7.085197940190952545e-03
3.343031912592404637e-03
1.722530186039244234e-03
3.343031912592404637e-03
5.812089870375664220e-03
8.708841628440166377e-03
1.080558045970021232e-02
1.080558045970021232e-02
8.708841628440166377e-03
5.812089870375664220e-03
3.343031912592404637e-03
1.722530186039244234e-03
)
;

boundaryField
{
    patch0_half0
    {
        type cyclic;
    }
    patch0_half1
    {
        type cyclic;
    }
    patch1_half0
    {
        type cyclic;
    }
    patch1_half1
    {
        type cyclic;
    }
    patch2_half0
    {
        type cyclic;
    }
    patch2_half1
    {
        type cyclic;
    }
}
